<?xml version="1.0"?>
<VTKFile type="UnstructuredGrid" version="0.1" byte_order="LittleEndian">
<UnstructuredGrid>
<Piece NumberOfPoints="17287" NumberOfCells="100407">
<Points>
<DataArray type="Float64" Name="Array" NumberOfComponents="3" format="ascii">
41.002 41.572 5.0814
37.034 38.752 7.6663
61.717 36.763 38.866
42.325 34.418 5.7252
49.696 56.991 52.934
46.209 36.745 8.9053
39.919 34.091 7.0418
39.297 34.199 7.3857
40.734 49.754 19.884
48.241 27.617 19.363
40.597 40.038 6.6465
41.472 41.956 26.972
65.458 44.143 29.487
48.541 30.697 21.067
43.522 38.79 7.4925
42.888 38.146 6.1073
41.636 36.221 10.229
41.683 39.093 5.4269
37.085 35.94 6.1221
43.055 36.553 5.7725
37.358 35.128 5.1338
40.496 35.956 8.2524
42.69 37.937 5.3273
42.728 45.075 13.113
38.789 34.028 5.7698
43.439 31.996 15.953
26.591 28.16 17.544
55.839 32.547 12.78
33.018 33.521 13.949
34.032 31.104 8.3849
44.396 57.37 35.756
40.081 34.953 7.8155
41.427 30.981 11.075
41.898 32.878 8.8634
37.25 35.883 9.7513
34.325 41.629 14.932
53.957 29.802 18.073
49.761 18.572 39.107
36.356 24.822 30.163
52.051 23.77 29.309
56.839 35.125 28.225
47.459 31 10.408
39.152 35.255 9.5733
37.602 32.745 13.238
34.263 25.274 15.414
37.128 32.326 9.6503
39.013 37.005 13.263
37.322 35.148 22.205
16.653 43.801 36.893
33.343 33.043 57.125
42.097 34.857 7.6863
38.032 34.512 5.4309
28.017 48.945 28.19
38.027 34.547 6.8515
45.3 34.005 7.2069
46.08 33.974 39.872
38.924 42.193 11.065
41.064 34.21 5.8718
39.208 33.998 6.5378
27.062 58.464 45.862
39.827 34.138 5.7056
42.917 37.514 5.16
43.03 37.178 5.6825
43.526 37.111 7.2965
43.104 36.985 6.5366
43.014 35.575 6.8328
42.294 38.178 5.1399
42.459 38.375 5.7118
42.523 39.347 6.7034
42.48 41.761 9.6866
42.875 40.466 8.2714
44.042 38.834 11.445
50.821 37.938 14.913
58.297 55.105 16.062
44.009 37.711 9.4516
44.424 34.837 10.647
47.381 36.715 12.904
44.758 39.523 20.007
46.889 41.628 15.078
42.136 34.701 13.655
41.707 37.972 16.896
50.996 33.379 13.067
42.679 38.825 6.2311
43.148 38.479 6.8209
40.416 39.243 5.6415
38.398 39.893 6.3237
38.006 41.054 8.7615
36.898 39.351 11.661
55.919 49.627 38.337
41.405 34.139 5.3089
26.049 34.726 31.026
38.299 34.907 8.3309
40.844 41.087 8.4899
42.057 39.268 6.0857
41.692 40.067 6.749
41.212 39.709 5.9895
41.896 28.826 21.953
43.25 35.894 8.5757
35.03 37.217 14.919
31.184 38.847 20.889
35.333 33.69 18.119
40.236 34.536 5.139
38.513 36.005 11.456
35.611 35.822 12.295
28.812 38.021 15.14
42.429 34.637 5.2083
42.93 35.229 5.8744
42.865 35.111 5.243
43.041 35.812 5.4245
31.152 43.098 43.726
41.042 34.284 7.4764
23.542 47.351 58.813
37.603 34.055 10.946
35.004 32.94 11.829
43.604 37.959 7.3197
43.94 37.473 8.3181
43.88 38.657 8.6673
44.022 39.005 10.036
43.819 40.842 10.976
43.323 40.579 14.672
42.562 42.795 12.005
44.721 43.133 13.898
46.569 46.94 18.9
46.585 51.453 27.905
44.969 46.272 15.709
51.23 42.921 26.477
40.924 47.973 15.875
34.677 47.448 18.218
35.308 50.203 25.548
29.02 69.043 28.844
27.903 59.741 18.391
32.733 58.167 33.915
35.165 45.913 34.791
40.182 44.037 12.717
36.741 43.685 13.396
45.664 28.421 22.024
44.405 34.789 25.874
44.019 31.233 24.231
41.956 33.472 20.387
38.256 30.826 26.632
35.414 33.475 36.987
35.565 30.106 22.074
41.059 40.744 7.4194
39.291 40.94 7.4496
45.602 38.445 33.067
51.907 41.255 39.359
43.114 42.964 48.739
58.81 44.761 52.506
52.969 35.115 49.292
47.822 30.337 32.472
56.317 27.601 38.286
37.542 35.053 6.1121
37.188 35.419 7.2963
36.982 37.094 7.3509
33.623 34.944 8.7485
36.908 37.615 9.1427
37.75 38.176 6.0552
36.409 37.177 11.041
35.958 37.817 13.058
32.176 37.996 11.243
34.11 36.746 10.727
32.113 35.337 12.049
28.458 33.367 13.941
35.174 39.504 14.469
31.866 39.364 14.93
31.379 42.357 18.175
34.975 43.595 23.669
16.043 50.733 26.903
30.912 39.476 28.214
28.764 40.676 36.147
20.201 29.897 46.472
26.29 50.546 38.326
20.066 61.223 34.186
21.844 41.876 26.208
33.57 18.961 46.173
22.867 38.448 43.27
17.823 48.434 48.105
17.724 38.479 53.202
15.855 33.03 37.092
30.893 32.572 12.021
32.355 29.164 14.456
35.56 29.987 13.508
37.245 36.884 14.658
35.743 34.348 14.884
39.5 37.409 15.738
38.411 38.924 19.897
37.164 37.167 17.712
28.218 34.495 19.315
44.126 28.131 17.921
47.672 29.495 14.972
42.093 38.571 5.4062
42.229 38.831 5.845
36.531 41.415 14.072
38.086 53.588 46.055
43.055 35.904 6.1648
36.824 39.596 9.479
46.809 33.705 22.941
51.403 35.548 20.076
31.963 27.647 19.352
25.804 19.909 26.499
20.603 21.804 37.362
28.56 33.522 48.986
34.767 44.882 15.938
37.185 47.733 15.41
28.346 40.48 55.01
36.169 50.229 58.421
37.488 67.466 54.277
34.619 69.452 41.181
35.87 41.279 60.077
45.827 33.322 59.703
47.425 45.522 60.052
29.491 25.352 14.957
40.338 36.976 11.663
38.739 29.689 12.559
32.365 36.942 9.1077
41.421 37.076 13.907
44.719 36.992 15.259
43.413 36.529 12.383
44.024 35.796 18.58
47.416 26.165 39.226
42.38 20.52 34.828
37.171 41.256 10.611
37.617 41.743 12.464
38.173 43.525 12.174
38.35 45.876 13.533
43.967 40.223 12.843
45.184 38.321 13.407
45.38 40.364 14.376
47.873 38.916 14.735
50.061 40.978 17.011
48.166 44.027 17.467
46.943 43.316 22.114
45.776 48.089 23.959
54.069 50.258 22.044
63.531 59.266 29.582
40.938 48.768 27.863
38.106 55.028 30.186
37.635 53.291 38.028
63.638 50.948 22.917
35.455 60.798 41.904
43.554 61.424 47.03
53.64 76.073 36.472
46.43 74.3 47.384
56.566 64.727 43.785
50.461 46.832 21.997
48.684 53.781 43.765
42.305 44.726 32.934
43.693 50.635 35.943
39.332 39.225 36.11
38.057 37.105 44.554
48.588 46.896 27.891
52.993 51.538 31.738
53.942 58.536 37.568
53.91 46.914 29.022
59.364 43.276 23.174
52.896 41.497 32.772
54.133 34.65 36.077
50.014 66.591 26.654
61.151 50.638 32.085
65.794 56.326 42.286
59.047 43.15 30.898
57.637 55.004 47.551
63.593 38.758 32.845
64.003 29.56 33.557
63.04 45.146 37.309
43.787 48.925 17.812
29.027 45.472 23.076
39.602 38.229 17.964
41.59 39.096 20.336
39.435 40.61 23.581
43.56 39.494 24.135
35.863 60.433 50.184
26.56 59.229 58.104
37.683 59.524 59.435
37.593 38.357 52.61
37.522 29.755 49.804
45.255 21.179 49.422
50.801 29.625 18.947
51.68 25.641 15.163
52.233 32.649 18.58
56.862 33.667 17.418
53.91 35.593 17.593
52.19 38.553 18.418
49.117 39.891 20.972
54.561 47.297 34.04
53.166 45.735 38.322
58.263 43.163 44.366
48.893 45.865 44.66
47.004 49.44 51.692
58.076 45.184 37.705
64.241 49.067 47.051
60.938 48.533 41.939
61.048 54.056 38
62.742 62.054 37.262
61.346 70.702 29.592
60.406 41.051 36.006
43.035 54.427 56.468
44.875 62.413 56.755
52.646 67.233 36.199
42.373 69.22 33.741
35.794 63.241 26.997
55.865 46.731 42.189
62.531 41.37 40.456
65.313 40.22 48.716
60.991 37.389 45.099
59.945 36.154 52.815
57.293 32.986 41.92
52.447 27.571 45.309
47.705 28.979 52.434
43.07 29.012 44.72
45.053 36.268 52.151
51.402 39.993 55.607
58.938 32.114 48.004
55.144 29.626 54.19
28.247 26.188 42.834
32.514 16.704 35.843
47.869 43.924 35.51
36.809 41.4 27.418
32.653 45.349 28.799
44.093 49.947 21.305
41.134 48.618 23.787
37.71 50.037 22.414
34.198 47.812 22.333
53.827 51.367 26.862
55.101 59.262 29.316
54.196 56.921 23.059
59.534 54.85 26.528
60.34 61.692 22.915
57.632 49.773 29.101
47.272 33.942 9.5572
46.86 33.292 12.933
43.288 51.138 25.843
43.128 54.998 29.2
49.156 57.004 29.688
42.766 62.451 30.403
51.52 26.005 18.833
40.652 41.624 10.356
39.138 43.98 30.041
43.017 41.657 13.292
56.816 48.998 25.015
58.991 50.857 20.77
60.976 49.791 26.232
62.054 55.357 20.057
63.074 46.259 23.756
67.056 48.776 26.782
59.985 46.389 28.438
61.813 46.253 32.497
63.873 41.113 25.276
59.241 39.159 26.201
55.4 39.651 29.082
50.85 35.958 30.999
55.079 40.847 24.406
52.287 36.769 26.056
57.203 29.467 31.87
63.603 47.655 28.067
66.348 50.091 31.798
54.977 37.632 32.962
53.454 38.645 36.618
50.861 36.185 40.546
50.612 30.761 39.183
50.345 40.889 35.776
46.082 40.242 39.119
49.269 39.835 32.002
49.659 44.252 31.348
45.389 43.967 29.548
50.481 37.212 34.626
48.057 38.451 36.839
48.292 34.452 36.555
44.104 35.927 36.406
45.246 39.878 35.981
43.413 41.91 37.935
41.752 38.038 41
38.874 42.855 39.246
34.304 38.887 39.47
43.666 36.377 46.375
40.856 43.729 44.045
41.999 48.911 47.292
35.694 46.013 48.176
43.879 55.069 48.979
32.06 50.33 43.557
29.098 51.082 52.347
35.957 44.57 43.027
32.365 45.783 39.305
27.013 45.651 40.949
48.302 38.085 40.037
47.819 41.425 43.373
48.412 44.764 40.11
46.484 49.468 41.609
43.101 53.468 43.574
40.036 48.953 41.896
39.304 57 42.039
41.311 62.77 38.79
45.403 69.267 41.193
46.174 47.411 37.482
36.467 24.586 39.995
58.951 59.052 18.97
27.404 43.585 29.764
21.274 47.826 31.785
20.493 47.87 40.908
19.882 54.229 36.943
26.681 45.812 35.363
22.446 41.222 36.52
15.748 43.889 43.575
17.934 39.637 31.488
26.407 50.579 32.999
29.67 54.741 29.726
25.991 57.971 34.39
26.724 66.536 37.559
28.232 61.799 28.605
32.049 64.899 33.295
18.757 54.014 43.898
19.349 56.281 52.944
22.469 59.66 40.637
52.028 70.574 44.258
49.136 67.491 51.55
49.158 75.974 41.477
46.732 74.874 34.773
36.804 79.181 27.909
52.117 74.263 28.626
43.59 73.397 24.059
37.617 49.242 18.487
35.661 31.591 16.023
37.402 31.189 18.823
36.457 28.909 15.93
35.961 26.453 17.614
37.731 26.136 21.774
33.327 44.69 20.406
33.842 41.233 21.217
34.526 37.652 22.111
33.479 33.664 22.022
42.246 39.931 36.006
41.295 37.77 37.973
37.881 36.966 40.119
38.228 31.568 42.497
43.882 36.927 39.217
43.483 34.983 42.461
45.685 31.671 43.168
46.29 30.854 48.043
42.528 29.393 51.455
48.775 33.723 42.496
49.266 30.329 44.961
48.974 27.17 48.24
50.149 21.598 45.32
57.601 22.158 44.508
53.429 27.776 50.051
44.734 18.121 43.496
31.601 31.883 42.186
29.774 28.328 35.517
22.841 29.963 38.679
28.995 27.886 27.185
44.51 30.663 55.777
40.297 41.755 37.025
37.284 41.228 37.195
34.761 38.835 32.53
36.417 41.119 40.241
33.747 40.499 42.841
29.514 39.724 40.768
27.119 34.645 37.641
35.771 37.95 36.067
31.167 36.09 34.892
32.799 40.678 36.182
30.814 41.144 32.284
27.71 38.626 30.862
25.576 36.993 25.252
28.841 35.713 27.898
26.661 36.912 34.348
21.167 35.45 36.038
19.091 30.048 29.86
18.705 35.629 25.627
45.445 25.55 50.55
50.779 22.407 52.78
[...]
<PointData>
<DataArray type="Float64" Name="Data" NumberOfComponents="1" format="ascii">
0 0 0.158549301239367 0 0.14136375176953 0.171422913932222 0 0 0 0.171422913932222 0 0.152402874856863 0.131151730885776 0.171422913932222 0 0 0.152402874856863 0 0 0 0 0 0 0 0 0.171422913932222 0.155950884494991 0.171422913932222 0.155950884494991 0 0 0 0.171422913932222 0.171422913932222 0.155950884494991 0 0.171422913932222 0.166328562750051 0.121705419140445 0.166328562750051 0.158549301239367 0.171422913932222 0.152402874856863 0.155950884494991 0.155950884494991 0.155950884494991 0.152402874856863 0.155950884494991 0.111105808833954 0.146480450532982 0 0 0.0174018924523629 0 0 0.161188436347122 0 0 0 0.154398034965319 0 0 0 0 0 0 0 0 0 0 0 0.152402874856863 0.171422913932222 0.0942939488039774 0 0.171422913932222 0.171422913932222 0.152402874856863 0 0.171422913932222 0.152402874856863 0.171422913932222 0 0 0 0 0 0 0.141656072627065 0 0.148278790330155 0 0 0 0 0 0.171422913932222 0.152402874856863 0.155950884494991 0.155950884494991 0.155950884494991 0 0.152402874856863 0.155950884494991 0.155950884494991 0 0 0 0 0.147130730373495 0 0.132451433302928 0.155950884494991 0.155950884494991 0 0 0 0 0 0.152402874856863 0 0 0 0 0 0.0350311377223122 0 0 0 0.105766464210487 0.0779712409650186 0.0956187684928504 0.139600684497245 0 0 0.171422913932222 0.171422913932222 0.171422913932222 0.171422913932222 0.155950884494991 0.148278790330155 0.155950884494991 0 0 0.158549301239367 0.158549301239367 0.146552041103224 0.154628370991347 0.161188436347122 0.150976959628503 0.166328562750051 0 0 0 0 0 0 0.155950884494991 0.155950884494991 0 0.155950884494991 0.155950884494991 0.155950884494991 0 0.155950884494991 0 0.155950884494991 0.0904827174262573 0.148278790330155 0.148278790330155 0.147130730373495 0.132868909278055 0.137327653858079 0.0904827174262573 0.157281291688964 0.147130730373495 0.14023598107621 0.147130730373495 0.148278790330155 0.155950884494991 0.155950884494991 0.155950884494991 0.152402874856863 0.155950884494991 0.152402874856863 0.152402874856863 0.152402874856863 0.155950884494991 0.171422913932222 0.171422913932222 0 0 0 0.15510987185765 0 0 0.171422913932222 0.171422913932222 0.155950884494991 0.157281291688964 0.157281291688964 0.147130730373495 0 0 0.14023598107621 0.13932518578067 0.13932518578067 0.13932518578067 0.14023598107621 0.161188436347122 0.123824724700219 0.155950884494991 0.152402874856863 0.155950884494991 0 0.152402874856863 0.152402874856863 0.152402874856863 0.171422913932222 0.0823168268538681 0.150976959628503 0 0 0 0 0.152402874856863 0 0 0.171422913932222 0.171422913932222 0 0.171422913932222 0.152402874856863 0.0350311377223122 0.126654306161424 0 0 0.139600684497245 0.131151730885776 0.122651325541906 0.0909325537422775 0.129820411159822 0.14136375176953 0.129820411159822 0.0350311377223122 0.111383173790586 0.152402874856863 0.139343412797902 0 0.050146710741576 0 0.0834667251117102 0.141656072627065 0.041347703341499 0.131151730885776 0.158549301239367 0.124208806324079 0.0898333368249855 0.130352194831639 0.123824724700219 0.131151730885776 0.123824724700219 0.158549301239367 0.158549301239367 0.130352194831639 0 0.109443878014668 0.152402874856863 0.152402874856863 0.152402874856863 0.152402874856863 0.13932518578067 0.154398034965319 0.13932518578067 0.146480450532982 0.146480450532982 0.0823168268538681 0.171422913932222 0.171422913932222 0.171422913932222 0.171422913932222 0.171422913932222 0.171422913932222 0.171422913932222 0.141656072627065 0.141656072627065 0.145878251757444 0.124208806324079 0.123824724700219 0.130352194831639 0.154628370991347 0.154628370991347 0.123824724700219 0.146067102170244 0.146067102170244 0.158549301239367 0.14136375176953 0.14136375176953 0.129820411159822 0.0909325537422775 0.135354933555541 0.154628370991347 0.158549301239367 0.145878251757444 0.145878251757444 0.145878251757444 0.158549301239367 0.166328562750051 0.161188436347122 0.161188436347122 0.161188436347122 0.161188436347122 0.145878251757444 0.145878251757444 0.157281291688964 0.157281291688964 0.139343412797902 0 0 0 0.152402874856863 0 0 0.141656072627065 0.141656072627065 0.101643296968772 0.130352194831639 0.126654306161424 0.130352194831639 0.171422913932222 0.171422913932222 0 0 0.0834667251117102 0.0333860108614898 0.171422913932222 0 0.152402874856863 0.152402874856863 0.0785243925866786 0.131151730885776 0.131151730885776 0.131151730885776 0.131151730885776 0.131151730885776 0.131151730885776 0.130352194831639 0.158549301239367 0.158549301239367 0.158549301239367 0.150976959628503 0.158549301239367 0.158549301239367 0.166328562750051 0.131151730885776 0.130352194831639 0.158549301239367 0.124208806324079 0.161188436347122 0.166328562750051 0.158549301239367 0.15510987185765 0.158549301239367 0.139343412797902 0.152402874856863 0.158549301239367 0.158549301239367 0.158549301239367 0.158549301239367 0.158549301239367 0.15510987185765 0.15510987185765 0 0.122651325541906 0.146552041103224 0.15510987185765 0.146552041103224 0.14023598107621 0.0909325537422775 0.14023598107621 0.132451433302928 0.122651325541906 0.139600684497245 0.132868909278055 0.15510987185765 0.124208806324079 0.139343412797902 0.139343412797902 0.15510987185765 0.122651325541906 0.122651325541906 0.15510987185765 0.0909325537422775 0.139343412797902 0.113893894338816 0.0942939488039774 0.048406302046346 0.111105808833954 0.14023598107621 0.132451433302928 0.132868909278055 0.148278790330155 0.147130730373495 0.148278790330155 0.132868909278055 0 0.132868909278055 0.137327653858079 0.132868909278055 0.132868909278055 0.132451433302928 0.132451433302928 0.137327653858079 0.129820411159822 0.14136375176953 0.14136375176953 0.14136375176953 0.135354933555541 0.123222836340351 0.0800575267231292 0 0.155950884494991 0.155950884494991 0.155950884494991 0.155950884494991 0.155950884494991 0 0.155950884494991 0.155950884494991 0.155950884494991 0 0 0.15510987185765 0.146480450532982 0.146552041103224 0.146552041103224 0.161188436347122 0.161188436347122 0.161188436347122 0.161188436347122 0.161188436347122 0.161188436347122 0.166328562750051 0.166328562750051 0.166328562750051 0.0823168268538681 0.146480450532982 0.157281291688964 0.148278790330155 0.157281291688964 0.161188436347122 0 0 0.148278790330155 0.122651325541906 0.122651325541906 0.148278790330155 0.148278790330155 0.148278790330155 0.148278790330155 0 0.148278790330155 0.148278790330155 0.148278790330155 0.148278790330155 0.148278790330155 0.148278790330155 0.148278790330155 0.148278790330155 0.161188436347122 0 0.146480450532982 0.147130730373495 0.146480450532982 0.146480450532982 0.148278790330155 0.148278790330155 0.148278790330155 0.157281291688964 0.157281291688964 0.148278790330155 0.148278790330155 0.148278790330155 0.148278790330155 0.148278790330155 0.113893894338816 0.121705419140445 0.157281291688964 0.157281291688964 0.121705419140445 0.121705419140445 0.113893894338816 0.157281291688964 0.157281291688964 0.113893894338816 0.157281291688964 0.113893894338816 0.0592161800815724 0 0.145878251757444 0.145878251757444 0.166328562750051 0 0.155950884494991 0.155950884494991 0.155950884494991 0.141656072627065 0.148278790330155 0.148278790330155 0.155950884494991 0 0.111383173790586 -0.0236267063486859 0.141656072627065 0.141656072627065 0.146067102170244 0.129820411159822 0.111383173790586 0.154628370991347 0.154628370991347 0.123824724700219 0.154628370991347 0.154628370991347 0.154628370991347 0.123824724700219 0.154628370991347 0.123824724700219 0.123824724700219 0.14136375176953 0.145878251757444 0.145878251757444 0.129820411159822 0.139600684497245 0.139600684497245 0 0 0.122651325541906 0.132868909278055 0.0730381094858726 0.0956187684928504 0.132868909278055 0.137327653858079 0.137327653858079 0.154398034965319 0.137327653858079 0.154398034965319 0.154398034965319 0.13932518578067 0.13932518578067 0.154398034965319 0.137327653858079 0.154398034965319 0.13932518578067 0.13932518578067 0.154398034965319 0.13932518578067 0.154398034965319 0.128141632298438 0.154398034965319 0.110004474819053 0.132868909278055 0.154398034965319 0.110004474819053 0.132868909278055 0.137327653858079 0.110004474819053 0.154398034965319 0.128141632298438 0.135354933555541 0.110004474819053 0.13932518578067 0.13932518578067 0.158549301239367 0.158549301239367 0.158549301239367 0.158549301239367 0.161188436347122 0.161188436347122 0.161188436347122 0.161188436347122 0.161188436347122 0.161188436347122 0.154628370991347 0.157281291688964 0.148278790330155 0.148278790330155 0.148278790330155 0.171422913932222 0.171422913932222 0.15510987185765 0.15510987185765 0.0592161800815724 0.13932518578067 0.13932518578067 0.13932518578067 0.13932518578067 0.132451433302928 0.14023598107621 0.152402874856863 0.152402874856863 0.146067102170244 0.147130730373495 0.14023598107621 0.14023598107621 0.147130730373495 0.147130730373495 0.147130730373495 0.147130730373495 0.154398034965319 0.154398034965319 0.13932518578067 0.128141632298438 0.154398034965319 0.135354933555541 0.0745938164437009 0.105766464210487 0.15510987185765 0.128141632298438 0.0901799768765321 0.154398034965319 0.128141632298438 0.13932518578067 0.105766464210487 0.13932518578067 0.13932518578067 0 0.154398034965319 0.13932518578067 0.171422913932222 0.171422913932222 0.171422913932222 0.171422913932222 0.171422913932222 0.171422913932222 0.171422913932222 0.171422913932222 0.171422913932222 0.171422913932222 0.171422913932222 0.148278790330155 0.147130730373495 0.148278790330155 0.148278790330155 0.148278790330155 0.148278790330155 0.111105808833954 0.111105808833954 0.111105808833954 0.148278790330155 0.148278790330155 0.147130730373495 0.157281291688964 0.147130730373495 0.147130730373495 0.147130730373495 0.147130730373495 0.147130730373495 0.147130730373495 0.147130730373495 0.148278790330155 0.148278790330155 0.148278790330155 0.0904827174262573 0.0904827174262573 0.0904827174262573 0.0717962022485638 0.111105808833954 0.0449842059945113 0.0543724399039806 0.132868909278055 0.132868909278055 0.111105808833954 0.0449842059945113 0.0449842059945113 0.148278790330155 0.148278790330155 0.148278790330155 0.148278790330155 0.111105808833954 0.147130730373495 0.146480450532982 0.147130730373495 0.146480450532982 0.146480450532982 0.14023598107621 0.132451433302928 0.14023598107621 0.147130730373495 0.147130730373495 0.146480450532982 0.14023598107621 0.14023598107621 0.146480450532982 0.14023598107621 0.050146710741576 0 0 0.124208806324079 0.124208806324079 0.146552041103224 0.146552041103224 0.154628370991347 0.154628370991347 0.154628370991347 0.161188436347122 0.0785243925866786 0 0 0 0 0.0412866282031839 0.0956187684928504 0 0.145878251757444 0.158549301239367 0.145878251757444 0.145878251757444 0.145878251757444 0.145878251757444 0.145878251757444 0.145878251757444 0.145878251757444 0.145878251757444 0.145878251757444 0.145878251757444 0.145878251757444 0.145878251757444 0 0 0 0 0 0.0904827174262573 0.161188436347122 0.121705419140445 0.15510987185765 0.0909325537422775 0.15510987185765 0.15510987185765 0.124208806324079 0.14136375176953 0.14136375176953 0.14136375176953 0.111383173790586 0.124208806324079 0.148278790330155 0.154628370991347 0.123824724700219 0.129820411159822 0.14136375176953 0.14136375176953 0.123824724700219 0.14136375176953 0.14136375176953 0.14136375176953 0.14136375176953 0.129820411159822 0.129820411159822 0.14136375176953 0.129820411159822 0.14136375176953 0.14136375176953 0.14136375176953 0.14136375176953 0.14136375176953 0.146552041103224 0.123824724700219 0.123824724700219 0.147130730373495 0.14023598107621 0.158549301239367 0.145878251757444 0.145878251757444 0.145878251757444 0.145878251757444 0.145878251757444 0.145878251757444 0.145878251757444 0.145878251757444 0.161188436347122 0.154628370991347 0.161188436347122 0.157281291688964 0.109443878014668 0.109443878014668 0.048406302046346 0 0.139600684497245 0.109443878014668 0.109443878014668 0.0174018924523629 0.0904827174262573 0.148278790330155 0.0904827174262573 0.0904827174262573 0.148278790330155 0.132868909278055 0.132868909278055 0.132868909278055 0.132868909278055 0.111105808833954 0.111105808833954 0.132868909278055 0.132868909278055 0.132868909278055 0.0543724399039806 0.0779712409650186 0.0779712409650186 0.0904827174262573 0.0904827174262573 0.0904827174262573 0.0904827174262573 0.0449842059945113 0.0449842059945113 0 0 0.0174018924523629 0 0 0.111105808833954 0.148278790330155 0.111105808833954 0.147130730373495 0.111105808833954 0.048406302046346 0 0.0956187684928504 0.111105808833954 0.0904827174262573 0.111105808833954 0.0717962022485638 0.0779712409650186 0.0717962022485638 0.0779712409650186 0.0779712409650186 0.132868909278055 0.132868909278055 0.132868909278055 0.0779712409650186 0.0779712409650186 0.0904827174262573 0.111105808833954 0.111105808833954 0.111105808833954 0.0904827174262573 0.0904827174262573 0.0904827174262573 0.0904827174262573 0.0904827174262573 0.0904827174262573 0.111105808833954 0.111105808833954 0.111105808833954 0.0904827174262573 0.0904827174262573 0.0904827174262573 0.0449842059945113 0.0717962022485638 0.0449842059945113 0.111105808833954 0.111105808833954 0.111105808833954 0.111105808833954 0.132868909278055 0.132868909278055 0.0904827174262573 0.0904827174262573 0.0904827174262573 0.0904827174262573 0.111105808833954 0.0904827174262573 0.0449842059945113 0.0717962022485638 0.0449842059945113 0.0449842059945113 0.0904827174262573 0.0904827174262573 0.0904827174262573 0.0904827174262573 0.0904827174262573 0.0904827174262573 0.0904827174262573 0.0904827174262573 0.0904827174262573 0.0904827174262573 0.0904827174262573 0.0904827174262573 0 0 0.0904827174262573 0.0904827174262573 0.0904827174262573 0.0543724399039806 0 0.0904827174262573 0.0904827174262573 0.148278790330155 0.0904827174262573 0.0904827174262573 0.148278790330155 0.148278790330155 0.148278790330155 0.13932518578067 0.13932518578067 0.13932518578067 0.13932518578067 0.13932518578067 0.13932518578067 0.154398034965319 0.154398034965319 0.154398034965319 0.154398034965319 0.154398034965319 0.132451433302928 0.154398034965319 0.132451433302928 0.132451433302928 0.154398034965319 0.15510987185765 0.146480450532982 0.146480450532982 0.171422913932222 0.171422913932222 0.171422913932222 0.171422913932222 0.171422913932222 0.171422913932222 0.171422913932222 0.171422913932222 0.171422913932222 0.171422913932222 0.171422913932222 0.157281291688964 0.157281291688964 0.157281291688964 0.113893894338816 0.157281291688964 0.157281291688964 0.157281291688964 0.157281291688964 0.157281291688964 0.157281291688964 0.157281291688964 0.157281291688964 0.147130730373495 0.147130730373495 0.157281291688964 0.157281291688964 0.157281291688964 0.157281291688964 0.157281291688964 0.157281291688964 0.157281291688964 0.157281291688964 0.157281291688964 0.157281291688964 0.157281291688964 0.105766464210487 0.148278790330155 0.148278790330155 0.148278790330155 0.148278790330155 0.148278790330155 0.148278790330155 0.148278790330155 0.148278790330155 0.157281291688964 0.157281291688964 0.157281291688964 0.157281291688964 0.157281291688964 0.157281291688964 0.157281291688964 0.157281291688964 0.157281291688964 0.157281291688964 0.157281291688964 0.154398034965319 0.157281291688964 0.157281291688964 0.157281291688964 0.157281291688964 0.157281291688964 0.157281291688964 0.157281291688964 0 0.157281291688964 0.157281291688964 0.157281291688964 0.157281291688964 0.157281291688964 0 0.157281291688964 0.157281291688964 0.157281291688964 0.157281291688964 0.157281291688964 0.146480450532982 0.157281291688964 0.157281291688964 0.157281291688964 0.157281291688964 0.157281291688964 0.157281291688964 0.157281291688964 0.146480450532982 0.157281291688964 0.146480450532982 0.146480450532982 0.146480450532982 0.146480450532982 0.146480450532982 0.146480450532982 0.146480450532982 0.157281291688964 0.146480450532982 0.157281291688964 0.157281291688964 0.157281291688964 0.157281291688964 0.157281291688964 0.113893894338816 0.157281291688964 0.123824724700219 0.123824724700219 0.154628370991347 0.161188436347122 0.157281291688964 0.157281291688964 0.158549301239367 0.158549301239367 0.041347703341499 0.0785243925866786 0.041347703341499 0.0827629214997225 0 0 0.141656072627065 0.0350311377223122 0.101643296968772 0.126654306161424 0.131151730885776 0.126654306161424 0.101643296968772 0.101643296968772 0.0834667251117102 0.0834667251117102 0.141656072627065 0.0294908266490077 0.0898333368249855 0.131151730885776 0.0834667251117102 0.0834667251117102 0.0834667251117102 0.146067102170244 0.146067102170244 0.146067102170244 0.129820411159822 0.0492152716117461 0.146067102170244 0.146067102170244 0.129820411159822 0.146067102170244 0.0834667251117102 0 0.141656072627065 0.129820411159822 0.15510987185765 0.111383173790586 -0.0333294676010616 0.111383173790586 0.111383173790586 0 0 0 0.0800575267231292 0.129820411159822 0.0898333368249855 0.0492152716117461 0.129820411159822 0.129820411159822 0.129820411159822 0.141656072627065 0.141656072627065 0.141656072627065 0.141656072627065 0.146067102170244 0.123824724700219 0.146067102170244 0.123824724700219 0.123824724700219 0.141656072627065 0.129820411159822 0.146067102170244 0.146067102170244 0.146067102170244 0.0909325537422775 0.14136375176953 0.14136375176953 0.15510987185765 0.141656072627065 0 0.0898333368249855 0.141656072627065 0.0898333368249855 0 0.141656072627065 0.15510987185765 0.0834667251117102 0.141656072627065 0.141656072627065 0.141656072627065 0.130352194831639 0.141656072627065 0.141656072627065 0.141656072627065 0.130352194831639 0.130352194831639 0.130352194831639 0.158549301239367 0.158549301239367 0.131151730885776 0.158549301239367 0.158549301239367 0.141656072627065 0.141656072627065 0.158549301239367 0.141656072627065 0.141656072627065 0.141656072627065 0.0909325537422775 0.14136375176953 0.14136375176953 0.14136375176953 0.14136375176953 0.14136375176953 0.14136375176953 0.14136375176953 0.141656072627065 0.129820411159822 0.0294908266490077 0 0 0.141656072627065 0.141656072627065 0.141656072627065 0.141656072627065 0.141656072627065 0.0492152716117461 0.0492152716117461 0.0492152716117461 0.146067102170244 0.146067102170244 0.101643296968772 0.101643296968772 0.101643296968772 0.129820411159822 0.0492152716117461 0.123222836340351 0.123222836340351 0.129820411159822 0.123222836340351 0.123222836340351 0.0800575267231292 0.0492152716117461 0.129820411159822 0.0800575267231292 0.0492152716117461 0.146067102170244 0.0492152716117461 0.129820411159822 0.129820411159822 0.129820411159822 0.146067102170244 0.146067102170244 0.146067102170244 0.146067102170244 0.146067102170244 0.146067102170244 0.146067102170244 0.146067102170244 0.146067102170244 0.146067102170244 0.129820411159822 0.129820411159822 0.129820411159822 0.129820411159822 0.129820411159822 0.129820411159822 0.129820411159822 0.129820411159822 0.129820411159822 0.129820411159822 0.129820411159822 0.129820411159822 0.14136375176953 0.129820411159822 0.129820411159822 0.129820411159822 0.129820411159822 0.129820411159822 0.146067102170244 0.129820411159822 0.129820411159822 0.129820411159822 0.0492152716117461 0.0492152716117461 0.129820411159822 0.146067102170244 0.146067102170244 0.129820411159822 0.146067102170244 0.0492152716117461 0.0492152716117461 0.146067102170244 0.0492152716117461 0.146067102170244 0.146067102170244 0.146067102170244 0.129820411159822 0.129820411159822 0.129820411159822 0.129820411159822 0.146067102170244 0.146067102170244 0.129820411159822 0.129820411159822 0.146067102170244 0.146067102170244 0.129820411159822 0.129820411159822 0.129820411159822 0.129820411159822 0.14136375176953 0.14136375176953 0.129820411159822 0.129820411159822 0.129820411159822 0.129820411159822 0.123222836340351 0.123222836340351 0.129820411159822 0.14136375176953 0 0.14136375176953 0.129820411159822 0.0492152716117461 0.129820411159822 0.1232